                               Psi4 1.7 release

  ==> Input File <==

--------------------------------------------------------------------------
import psi4
import numpy as np

# molecule h2o {
h2o = psi4.geometry("""
0 1
O   0.000000000000  -0.143225816552   0.000000000000
H   1.638036840407   1.136548822547  -0.000000000000
H  -1.638036840407   1.136548822547  -0.000000000001
units bohr
""")
#}

set {
    save_jk true
    guess CORE
    basis sto-3g
    DIIS false
    # SCF_INITIAL_ACCELERATOR None
}

eng, wfn = psi4.energy("scf", molecule=h2o, return_wfn=True)
E_nuc = h2o.nuclear_repulsion_energy()

j = wfn.jk().J()[0].to_array()
k = wfn.jk().K()[0].to_array()
h = wfn.H().to_array()
c = wfn.Ca_subset("AO", "OCC").to_array()

J = np.array(j)
K = np.array(k)
C = np.array(c)
H = np.array(h)

D = np.dot(C,C.transpose())

# E_el = 2*np.trace(np.dot(D, H)) + 2*np.trace(np.dot(D, J)) - np.trace(np.dot(D, K))

print(f"reference: {eng}")
# print(f"HF energy: {E_el+E_nuc}")

print(f"{J=}")
print(f"{K=}")
--------------------------------------------------------------------------

    Molecular point group: c2v

    Geometry (in Bohr), charge = 0, multiplicity = 1:

       Center              X                  Y                   Z               Mass
    ------------   -----------------  -----------------  -----------------  -----------------
         O            0.000000000000     0.000000000000    -0.143225816572    15.994914619570
         H            1.638036840407     0.000000000000     1.136548822527     1.007825032230
         H           -1.638036840407    -0.000000000000     1.136548822527     1.007825032230

  Charge       = 0
  Multiplicity = 1
  Basis Set: STO-3G
    Blend: STO-3G
  Basis Set: (STO-3G AUX)
    Blend: DEF2-UNIVERSAL-JKFIT

    Orbital Energies [Eh]
    ---------------------

    Doubly Occupied:

       1A1   -20.263131     2A1    -1.209724     1B1    -0.547972
       3A1    -0.436534     1B2    -0.387598

  @DF-RHF Final Energy:   -74.94217612605944

   => Energetics <=

    Nuclear Repulsion Energy =              8.0023670618107694
    One-Electron Energy =                -120.1991678526539999
    Two-Electron Energy =                  37.2546246647837833
    Total Energy =                        -74.9421761260594508
 Dipole X            :          0.0000000            0.0000000            0.0000000
 Dipole Y            :          0.0000000            0.0000000            0.0000000
 Dipole Z            :         -0.5239316            1.1272911            0.6033596
 Magnitude           :                                                    0.6033596
*** Psi4 exiting successfully. Buy a developer a beer!
