                               Psi4 1.7 release

  ==> Input File <==

--------------------------------------------------------------------------
import psi4
import numpy as np

h2o = psi4.geometry("""
symmetry c1
O
H 1 0.96
H 1 0.96 2 104.5
""")

set {
        save_jk true
}

eng, wfn = psi4.energy("scf/sto-3g", molecule=h2o, return_wfn=True)
E_nuc = h2o.nuclear_repulsion_energy()

j = wfn.jk().J()[0].to_array()
k = wfn.jk().K()[0].to_array()
h = wfn.H().to_array()
c = wfn.Ca_subset("AO", "OCC").to_array()

J = np.array(j)
K = np.array(k)
C = np.array(c)
H = np.array(h)

D = np.dot(C,C.transpose())

E_el = 2*np.trace(np.dot(D, H)) + 2*np.trace(np.dot(D, J)) - np.trace(np.dot(D, K))

print(f"reference: {eng}")
print(f"HF energy: {E_el+E_nuc}")
--------------------------------------------------------------------------

    Molecular point group: c1

    Geometry (in Angstrom), charge = 0, multiplicity = 1:

       Center              X                  Y                   Z               Mass
    ------------   -----------------  -----------------  -----------------  -----------------
         O            0.000000000000     0.000000000000    -0.065775570547    15.994914619570
         H            0.000000000000    -0.759061990794     0.521953018286     1.007825032230
         H            0.000000000000     0.759061990794     0.521953018286     1.007825032230

  Charge       = 0
  Multiplicity = 1
  Basis Set: STO-3G
    Blend: STO-3G
  Basis Set: (STO-3G AUX)
    Blend: DEF2-UNIVERSAL-JKFIT

    Orbital Energies [Eh]
    ---------------------

    Doubly Occupied:

       1A    -20.242316     2A     -1.267014     3A     -0.616421
       4A     -0.452702     5A     -0.391072

  @DF-RHF Final Energy:   -74.96340594385566

   => Energetics <=

    Nuclear Repulsion Energy =              9.1681932964243487
    One-Electron Energy =                -122.3241621920965088
    Two-Electron Energy =                  38.1925629518164982
    Total Energy =                        -74.9634059438556619
 Dipole X            :          0.0000000            0.0000000            0.0000000
 Dipole Y            :         -0.0000000            0.0000000           -0.0000000
 Dipole Z            :         -0.3008313            0.9783140            0.6774827
 Magnitude           :                                                    0.6774827
*** Psi4 exiting successfully. Buy a developer a beer!
